LAMMPS data file via write_data, version 2 Aug 2023, timestep = 174, units = real

3200 atoms
20 atom types
3200 bonds
23 bond types
4800 angles
48 angle types
6400 dihedrals
73 dihedral types
1400 impropers
29 improper types

0 50 xlo xhi
0 50 ylo yhi
0 50 zlo zhi

Masses

1 12.011
2 12.011
3 12.011
4 12.011
5 12.011
6 12.011
7 12.011
8 12.011
9 1.008
10 1.008
11 1.008
12 1.008
13 1.008
14 1.008
15 1.008
16 1.008
17 1.008
18 1.008
19 12.011
20 12.011

Pair Coeffs # lj/cut/coul/long

1 0.07 3.55
2 0.07 3.55
3 0.07 3.55
4 0.07 3.55
5 0.07 3.55
6 0.07 3.55
7 0.066 3.5
8 0.066 3.5
9 0.03 2.5
10 0.03 2.5
11 0.03 2.5
12 0.03 2.5
13 0.03 2.5
14 0.03 2.42
15 0.03 2.42
16 0.03 2.42
17 0.03 2.42
18 0.03 2.42
19 0.066 3.5
20 0.066 3.5

Bond Coeffs # harmonic

1 469 1.4
2 469 1.4
3 469 1.4
4 469 1.4
5 469 1.4
6 317 1.51
7 268 1.529
8 340 1.09
9 340 1.09
10 340 1.09
11 340 1.09
12 340 1.09
13 367 1.08
14 367 1.08
15 367 1.08
16 367 1.08
17 367 1.08
18 469 1.4
19 0 0
20 0 0
21 0 0
22 0 0
23 0 0

Angle Coeffs # harmonic

1 63 120
2 63 120
3 63 120
4 63 120
5 70 120
6 63 114
7 35 109.5
8 35 109.5
9 37.5 110.7
10 37.5 110.7
11 37.5 110.7
12 35 120
13 35 120
14 35 120
15 35 120
16 35 120
17 33 107.8
18 33 107.8
19 70 120
20 35 120
21 63 120
22 37.5 110.7
23 35 120
24 37.5 110.7
25 35 120
26 35 120
27 35 120
28 33 107.8
29 63 120
30 33 107.8
31 58.35 112.7
32 0 0
33 0 0
34 0 0
35 0 0
36 0 0
37 0 0
38 0 0
39 0 0
40 0 0
41 0 0
42 0 0
43 0 0
44 0 0
45 0 0
46 0 0
47 0 0
48 0 0

Dihedral Coeffs # opls

1 0 7.25 0 0
2 0 7.25 0 0
3 0 7.25 0 0
4 0 0 0 0
5 0 0 0.462 0
6 0 0 0.3 0
7 0 7.25 0 0
8 0 0 0.3 0
9 0 7.25 0 0
10 0 7.25 0 0
11 0 7.25 0 0
12 0 7.25 0 0
13 0 0 0.3 0
14 0 7.25 0 0
15 0 7.25 0 0
16 0 7.25 0 0
17 0 0 0.3 0
18 0 0 0 0
19 0 0 0.3 0
20 0 7.25 0 0
21 0 0 0 0
22 0 0 0.3 0
23 0 7.25 0 0
24 0 7.25 0 0
25 0 7.25 0 0
26 0 0 0 0
27 0 7.25 0 0
28 0 0 0.462 0
29 0 7.25 0 0
30 0 0 0.462 0
31 0 0 0 0
32 0 7.25 0 0
33 0 7.25 0 0
34 0 7.25 0 0
35 0 7.25 0 0
36 0 7.25 0 0
37 0 0 0 0
38 0 7.25 0 0
39 0 7.25 0 0
40 1.3 -0.2 0.2 0
41 0 0 0.3 0
42 0 0 0 0
43 0 0 0 0
44 0 0 0 0
45 0 0 0 0
46 0 0 0 0
47 0 0 0 0
48 0 0 0 0
49 0 0 0 0
50 0 0 0 0
51 0 0 0 0
52 0 0 0 0
53 0 0 0 0
54 0 0 0 0
55 0 0 0 0
56 0 0 0 0
57 0 0 0 0
58 0 0 0 0
59 0 0 0 0
60 0 0 0 0
61 0 0 0 0
62 0 0 0 0
63 0 0 0 0
64 0 0 0 0
65 0 0 0 0
66 0 0 0 0
67 0 0 0 0
68 0 0 0 0
69 0 0 0 0
70 0 0 0 0
71 0 0 0 0
72 0 0 0 0
73 0 0 0 0

Improper Coeffs # cvff

1 0 0 0
2 0 0 0
3 0 0 0
4 0 0 0
5 0 0 0
6 0 0 0
7 0 0 0
8 0 0 0
9 0 0 0
10 0 0 0
11 0 0 0
12 0 0 0
13 0 0 0
14 0 0 0
15 0 0 0
16 0 0 0
17 0 0 0
18 0 0 0
19 0 0 0
20 0 0 0
21 0 0 0
22 0 0 0
23 0 0 0
24 0 0 0
25 0 0 0
26 0 0 0
27 0 0 0
28 0 0 0
29 0 0 0

Atoms # full

913 58 18 0.1485 6.103108009206831 0.2826427838964006 3.0966565644460675 0 0 0
914 58 3 -0.1442 5.892219502185215 0.13979163484850993 2.046851057444404 0 0 0
915 58 17 0.147 5.507102305941313 2.2336519054498525 1.67890096985406 0 0 0
916 58 2 -0.146 5.557610926180853 1.246428276806714 1.2427160029596296 0 0 0
2545 160 18 0.1485 6.675286383808036 4.107636469740219 4.404494739159235 0 0 0
2546 160 3 -0.1442 6.3052853199321035 4.379096194826768 3.4262602736574275 0 0 0
2558 160 4 -0.0727 7.187895888834714 4.430498932902343 2.32959399993703 0 0 0
2559 160 5 -0.1534 6.702079169251436 4.77473087560519 1.0513443316540179 0 0 0
2547 160 17 0.147 4.262888172093573 4.629331346030207 4.088171248311152 0 0 0
2548 160 2 -0.146 4.939203255165325 4.672657431554144 3.2467250401705106 0 0 0
2549 160 1 -0.1537 4.453808730718458 5.016662873779359 1.9697083468335077 0 0 0
2550 160 15 0.1464 3.404658242347899 5.237759416372773 1.832148836112992 0 0 0
2551 160 6 -0.1435 5.335542031392358 5.067622432052781 0.8718825935921518 0 0 0
2554 160 12 0.08459999999999999 8.486089179447397 1.968482387604225 2.0866676961069093 0 0 0
2556 160 7 -0.0435 8.64882578384367 4.093733741964514 2.5278604593125054 0 0 0
2560 160 16 0.1448 7.375568944906073 4.803303378882685 0.20643459941294137 0 0 0
2553 160 13 0.08459999999999999 10.137549750980623 2.5779788889577575 2.0351694327215073 0 0 0
2555 160 8 -0.1451 9.101048165510432 2.8236146224814767 1.8048704904002189 0 0 0
2557 160 9 0.099 9.266888810193748 4.946406539216965 2.244147273813854 0 0 0
1446 91 15 0.1464 23.991085525895368 6.8199719107938765 7.202265311626191 0 0 0
1193 75 13 0.08459999999999999 40.80540734583156 7.070202144401313 6.040255570271076 0 0 0
1194 75 12 0.08459999999999999 39.98500004829911 7.554043956654337 4.558920114699441 0 0 0
1195 75 8 -0.1451 40.92139809070076 7.629354435505661 5.111987944384087 0 0 0
593 38 18 0.1485 11.525987826320376 8.259846749523987 6.984560050721988 0 0 0
601 38 13 0.08459999999999999 13.25068908574507 12.306626674449651 6.74411790392402 0 0 0
602 38 12 0.08459999999999999 11.596646863561464 11.72025840355779 6.5901625252047245 0 0 0
603 38 8 -0.1451 12.429575464545183 11.835503459996067 7.284173538454093 0 0 0
331 21 8 -0.1451 14.545145818389162 14.564059526231839 0.2787127665665211 0 0 1
1447 91 6 -0.1435 25.621545737138305 8.239921292923306 7.18334869131839 0 0 0
1456 91 16 0.1448 27.308004220438384 9.55958009298972 7.469275078836748 0 0 0
1448 91 14 0.1472 25.425688009468775 8.580316793063558 6.176655413319587 0 0 0
2793 175 13 0.08459999999999999 38.21449518070294 8.369127920662013 0.5104484141142349 0 0 0
1196 75 7 -0.0435 41.2595278339748 9.092429854974142 5.404763245439433 0 0 0
2794 175 12 0.08459999999999999 39.11613803729581 9.599251836298114 1.3886975779582276 0 0 0
2795 175 8 -0.1451 38.129713027370194 9.150479998469356 1.2646785568185204 0 0 0
1185 75 18 0.1485 39.557197874446025 11.038374199756358 4.529302345243973 0 0 0
1187 75 17 0.147 39.77517627604664 12.472237402959383 2.52089599862425 0 0 0
1188 75 2 -0.146 40.54457308824082 11.745822486862624 2.7452352859431177 0 0 0
2776 174 14 0.1472 39.67739686057219 14.126509794058956 49.8503367121241 0 0 0
2785 175 18 0.1485 37.07533307139514 12.854730637317784 0.2090620804650385 0 0 0
2786 175 3 -0.1442 36.99110947917872 12.693077283540132 1.2745557253016826 0 0 0
2788 175 2 -0.146 36.89886834657192 13.796411235868725 2.1452373140678076 0 0 0
2789 175 1 -0.1537 36.78202390326115 13.592524534135453 3.5332472357084255 0 0 0
2791 175 6 -0.1435 36.766672198908 12.283916208435105 4.053160478237974 0 0 0
2792 175 14 0.1472 36.677892915193326 12.127248606321237 5.118504066252769 0 0 0
2796 175 7 -0.0435 37.09412802117265 10.202134777587275 0.8522070154826711 0 0 0
2797 175 9 0.099 36.11242000567466 9.749900800115809 0.7073022306405822 0 0 0
2798 175 4 -0.0727 36.978667294905634 11.382570645806178 1.7921909933790052 0 0 0
2799 175 5 -0.1534 36.864329367713204 11.17965371965777 3.183414879644191 0 0 0
2800 175 16 0.1448 36.85772504156284 10.17579942511433 3.583918522444675 0 0 0
1198 75 4 -0.0727 41.400740965144536 9.963068960736988 4.17607236567762 0 0 0
488 31 14 0.1472 39.68971635766016 13.841471758107577 4.692133928953617 0 0 0
1186 75 3 -0.1442 40.41626575537621 10.927020837840411 3.8837974594351508 0 0 0
1189 75 1 -0.1537 41.66236574810994 11.606651902888013 1.8993977390586143 0 0 0
1190 75 15 0.1464 41.76183108491984 12.232052524404246 1.0229330030731516 0 0 0
1601 101 18 0.1485 41.035250871044504 11.899304023272792 8.14086712498126 0 0 0
1197 75 9 0.099 42.15404985113765 9.173195366415717 6.024165697137713 0 0 0
1191 75 6 -0.1435 42.64691078710383 10.641947907397691 2.189297536292146 0 0 0
1199 75 5 -0.1534 42.51652246697645 9.820610196734345 3.3267300631468366 0 0 0
1192 75 14 0.1472 43.50065251037843 10.529376746345115 1.5370208540912995 0 0 0
1200 75 16 0.1448 43.27166685164705 9.08021630572418 3.5480301190801056 0 0 0
1611 101 8 -0.1451 43.64889911982464 13.962887864290865 6.390435214496489 0 0 0
1612 101 7 -0.0435 42.783966731949796 12.712105550032932 6.2256186353683995 0 0 0
1613 101 9 0.099 42.888306016380156 12.284765875835879 5.227016110218257 0 0 0
1614 101 4 -0.0727 42.99827732657768 11.648112817005863 7.279040310173846 0 0 0
1616 101 16 0.1448 45.00302218775304 11.156668803210952 6.635020264293967 0 0 0
1552 97 16 0.1448 5.960172240445078 19.818572300057497 6.967541075114126 0 0 0
335 21 5 -0.1534 13.088945168756613 17.064800492861846 1.5952005164523868 0 0 1
336 21 16 0.1448 12.835265370403071 16.21068705366213 2.206332268133708 0 0 1
328 21 14 0.1472 12.771419904063753 18.49989073375269 3.1827421042796216 0 0 1
325 21 1 -0.1537 13.38873332339249 19.474691693205745 1.3563578885551706 0 0 1
326 21 15 0.1464 13.357071201732232 20.467588490837425 1.78264171478071 0 0 1
1207 76 6 -0.1435 8.99767051031003 19.503248180967613 3.6634520767554393 0 0 0
1208 76 14 0.1472 8.835529817582067 18.56224547990281 4.169097426082794 0 0 0
1215 76 5 -0.1534 8.442246824986443 20.68825117062278 4.185231747492036 0 0 0
1216 76 16 0.1448 7.8549091591790585 20.65313665896915 5.091650620542812 0 0 0
327 21 6 -0.1435 13.057353635456705 18.359327003922687 2.149949122573307 0 0 1
1205 76 1 -0.1537 9.75991535496697 19.544234265767866 2.4797122734983725 0 0 0
1204 76 2 -0.146 9.97264907885513 20.770815430400773 1.8212502569867446 0 0 0
1206 76 15 0.1464 10.184665028837665 18.636188388293718 2.073781114369367 0 0 0
1203 76 17 0.147 10.560189522370445 20.798095227214098 0.914337046091029 0 0 0
2137 134 13 0.08459999999999999 15.73521804749306 16.928460953852596 3.191018251946467 0 0 1
2139 134 8 -0.1451 16.679667667298325 16.750060669534943 2.6774747258101086 0 0 1
2138 134 12 0.08459999999999999 16.729002047963334 15.687247829335002 2.4404923643469894 0 0 1
2141 134 9 0.099 16.654381036346642 18.65588474430735 1.6125551547022094 0 0 1
2144 134 16 0.1448 19.405535678312315 17.867360248409398 2.0716405321733404 0 0 1
2140 134 7 -0.0435 16.75704277127893 17.591116455797117 1.4010116920093074 0 0 1
2143 134 5 -0.1534 19.270228024434207 17.534460315912995 1.0527246586568677 0 0 1
2142 134 4 -0.0727 17.972415043925913 17.33669562905544 0.5382278093455181 0 0 1
2135 134 6 -0.1435 20.395002167413153 17.296373551532515 0.23881990978850698 0 0 1
1387 87 8 -0.1451 25.415181069645815 16.46804841198474 2.3454444096368685 0 0 1
1386 87 12 0.08459999999999999 24.41489764151594 16.235760068122005 2.7122266661317966 0 0 1
1378 87 3 -0.1442 23.685223460629683 19.54252974028914 1.5049519781151768 0 0 1
1377 87 18 0.1485 23.67830042721482 19.882045064571436 2.5303762172736426 0 0 1
1379 87 17 0.147 22.092079188836816 20.86569786199704 0.8847884039352346 0 0 1
1390 87 4 -0.0727 24.597056462843913 18.54881007381035 1.0986052958081727 0 0 1
1380 87 2 -0.146 22.790396406940236 20.102876362173173 0.57231773319377 0 0 1
2136 134 14 0.1472 21.391553633740735 17.451896213306 0.6303937150841518 0 0 1
1385 87 13 0.08459999999999999 26.13508182463536 16.117912779181886 3.0848056059768765 0 0 1
105 7 13 0.08459999999999999 26.73096923801841 17.255752766310728 5.510546981767324 0 0 0
107 7 8 -0.1451 27.0051941440023 17.161034271219318 6.560762050368507 0 0 0
762 48 12 0.08459999999999999 28.40016177075502 17.407255958175956 3.5482711183255504 0 0 1
2714 170 12 0.08459999999999999 27.34426340849773 20.679731085192557 3.681704127949351 0 0 0
2715 170 8 -0.1451 26.548206688782134 20.722581282616318 4.424488338463548 0 0 0
2713 170 13 0.08459999999999999 26.020785513797644 19.76965314510837 4.394859500339445 0 0 0
1389 87 9 0.099 26.587992729009333 18.215873923324672 1.791942528572491 0 0 1
357 23 1 -0.1537 28.045545963927726 21.567327608418132 0.7874189399003294 0 0 1
356 23 2 -0.146 26.730334008623046 21.33489081845558 0.3424735308941763 0 0 1
355 23 17 0.147 25.9056042804941 21.35483046882576 1.039947714460528 0 0 1
1388 87 7 -0.0435 25.5713377626672 17.97074002715386 2.0987326030245406 0 0 1
768 48 16 0.1448 30.866180664303723 16.33546063886813 1.8856309492385315 0 0 1
767 48 5 -0.1534 30.26128665488277 16.520709497054376 1.0093245348095754 0 0 1
282 18 12 0.08459999999999999 34.57694436328557 15.364760347484596 1.4123153778396953 0 0 0
761 48 13 0.08459999999999999 29.175037726258413 18.82945764826258 4.238587000837484 0 0 1
763 48 8 -0.1451 29.278969681256264 18.048501984062707 3.4860834311014983 0 0 1
764 48 7 -0.0435 29.40792196144133 18.65943345602845 2.086963327535512 0 0 1
765 48 9 0.099 30.252693148510417 19.34630318473389 2.014476267904266 0 0 1
766 48 4 -0.0727 29.443836124998043 17.667633972854595 0.9442871127737305 0 0 1
360 23 14 0.1472 30.122158336534497 21.683000973840645 0.23315085950267936 0 0 1
3108 195 2 -0.146 32.33181694425976 21.361130646969492 3.086892357476154 0 0 0
3109 195 1 -0.1537 31.41626112613664 20.95439369039493 4.076983721779825 0 0 0
3110 195 15 0.1464 31.584181517131054 20.036445681010456 4.621952163538477 0 0 0
3107 195 17 0.147 33.20265209422303 20.760388833262645 2.8648522249150052 0 0 0
359 23 6 -0.1435 29.11569664707919 21.5126196726292 49.87592709195846 0 0 0
281 18 13 0.08459999999999999 33.21411615080827 16.206585236005584 0.6914889417788298 0 0 0
283 18 8 -0.1451 33.76638521314942 16.06325786644136 1.6194921266472293 0 0 0
284 18 7 -0.0435 34.30500698416676 17.400275667218306 2.132987079073608 0 0 0
285 18 9 0.099 33.49145679265378 18.075442519289656 2.4029496232632668 0 0 0
286 18 4 -0.0727 35.2911853436113 17.28191573442506 3.271789771662648 0 0 0
287 18 5 -0.1534 34.84300742012811 16.984028311481556 4.574593489249896 0 0 0
288 18 16 0.1448 33.78881326117455 16.844808162638646 4.766770180438641 0 0 0
279 18 6 -0.1435 35.77058024150775 16.860244414818265 5.627547259913831 0 0 0
280 18 14 0.1472 35.4289442262255 16.62935437764843 6.626097980406374 0 0 0
485 31 1 -0.1537 40.87334477645616 15.32587409755789 3.659719496394259 0 0 0
486 31 15 0.1464 40.83555408476345 14.809073584885883 2.7112596502289623 0 0 0
2787 175 17 0.147 36.909886823029055 14.802884858288632 1.7522535657825147 0 0 0
2790 175 15 0.1464 36.70177309870064 14.444461574655506 4.19546452414775 0 0 0
487 31 6 -0.1435 40.22758020005608 14.77471137339949 4.783470516848429 0 0 0
495 31 5 -0.1534 40.28890238434276 15.434551873859888 6.026487727419573 0 0 0
496 31 16 0.1448 39.795930467924244 15.004044497326987 6.886295894649421 0 0 0
483 31 17 0.147 42.069462071480245 16.967238515087818 2.9159046170937697 0 0 0
484 31 2 -0.146 41.57214141279007 16.54365496818442 3.7765853882102314 0 0 0
494 31 4 -0.0727 40.98917108889897 16.65252927789354 6.144306395910397 0 0 0
273 18 18 0.1485 37.0142992100126 17.67521778733221 2.0248148182409107 0 0 0
274 18 3 -0.1442 36.66724579909357 17.45331326475155 3.0233244131647865 0 0 0
275 18 17 0.147 38.65346942934954 17.43986497128347 3.8880024905849995 0 0 0
276 18 2 -0.146 37.59458885511321 17.324482092439442 4.075524773375518 0 0 0
277 18 1 -0.1537 37.14588030905223 17.02978173390173 5.37694335912808 0 0 0
278 18 15 0.1464 37.86250233641785 16.922600214969094 6.178260083371958 0 0 0
481 31 18 0.1485 42.16633372971943 18.140368436250263 5.10779414342332 0 0 0
482 31 3 -0.1442 41.627681182826386 17.207563545475953 5.01791167857343 0 0 0
1752 110 14 0.1472 35.574578158830604 20.00499091598593 0.5849851635064451 0 0 1
1609 101 13 0.08459999999999999 43.401833801642255 14.69652363940908 5.622647753018602 0 0 0
1610 101 12 0.08459999999999999 43.46528402607775 14.429957291039594 7.35755110681598 0 0 0
1209 76 13 0.08459999999999999 6.3011371219686385 24.47408294909903 3.8478652995754583 0 0 0
1211 76 8 -0.1451 6.650732106159776 23.504302228581068 3.4958398837888374 0 0 0
1421 89 9 0.099 6.995658695128784 24.92252618870518 6.8379387822469955 0 0 0
1543 97 6 -0.1435 5.20268527818259 21.668519086974268 6.144439442616679 0 0 0
1544 97 14 0.1472 5.406642637447048 21.392487788324388 5.11957013156875 0 0 0
2169 136 13 0.08459999999999999 1.4282139081652694 21.5961540056717 6.76886975146213 1 0 0
1541 97 1 -0.1537 4.615220524350026 22.915863783444436 6.433000437120147 0 0 0
1542 97 15 0.1464 4.370430535598479 23.600299323014234 5.6333464255988535 0 0 0
1210 76 12 0.08459999999999999 6.67294570281211 23.53407163118497 2.406586375239485 0 0 0
1420 89 7 -0.0435 6.833479511277093 25.84039980629923 6.270685356902138 0 0 0
1411 89 17 0.147 2.5969139718789207 27.70453208274216 5.536954260400192 0 0 0
1422 89 4 -0.0727 5.571689149969441 26.52677068466571 6.742109722277593 0 0 0
1412 89 2 -0.146 3.375981737485867 27.47164020604993 6.24925384948501 0 0 0
1410 89 3 -0.1442 4.552068630123147 26.82660133795042 5.818079821311637 0 0 0
1409 89 18 0.1485 4.675904836507687 26.56405592724376 4.777257385576404 0 0 0
1212 76 7 -0.0435 8.036356304339883 23.187697629032726 4.064079096744503 0 0 0
1213 76 9 0.099 8.024924819920244 23.17493755304257 5.1552439147501365 0 0 0
1214 76 4 -0.0727 8.649182628599634 21.91565225377981 3.5232520961396196 0 0 0
1202 76 3 -0.1442 9.417284162349103 21.956052553743366 2.342130167025583 0 0 0
1201 76 18 0.1485 9.575962110620713 22.894314040197948 1.8305287197993605 0 0 0
2369 149 18 0.1485 10.795035154958711 24.815665554722774 3.136851968860959 0 0 0
1418 89 12 0.08459999999999999 7.915998949224244 27.631124283486603 5.68831324076403 0 0 0
1419 89 8 -0.1451 8.082059666296066 26.725189460831896 6.271610635349843 0 0 0
2374 149 15 0.1464 7.741590180001044 27.727783064996018 2.2239884556710052 0 0 0
1417 89 13 0.08459999999999999 8.924897608466273 26.20220240489692 5.819037525548221 0 0 0
2370 149 3 -0.1442 10.433689097320602 25.83388138712427 3.1639313798163977 0 0 0
2371 149 17 0.147 8.579291660819122 25.375531195633034 2.152702005498483 0 0 0
2372 149 2 -0.146 9.178535790113612 26.150467019361823 2.60704845112117 0 0 0
2373 149 1 -0.1537 8.704718219314918 27.476372062224016 2.644659159783833 0 0 0
2375 149 6 -0.1435 9.488684202576831 28.48547969072174 3.234816397570989 0 0 0
2382 149 4 -0.0727 11.217598031580863 26.84383948127829 3.755659803491836 0 0 0
2383 149 5 -0.1534 10.743607888339744 28.170597927716663 3.7904404852704343 0 0 0
2381 149 9 0.099 12.560648054283638 26.687295953305775 5.418041150252848 0 0 0
2380 149 7 -0.0435 12.568111806750437 26.501630225231434 4.343416664242562 0 0 0
2379 149 8 -0.1451 13.7458292374177 27.212566861749416 3.6716576544040342 0 0 0
2378 149 12 0.08459999999999999 13.779775465957448 26.990685511126088 2.6048942061744023 0 0 0
1336 84 14 0.1472 17.356447011393787 24.579366621697652 4.854295035243702 0 0 1
1344 84 16 0.1448 17.748583586489374 25.40345288177695 2.543573727860765 0 0 1
2377 149 13 0.08459999999999999 14.691562594735329 26.889710269907013 4.105473005567648 0 0 0
1172 74 2 -0.146 21.12486124252741 26.837238752057992 4.334142024304975 0 0 0
1335 84 6 -0.1435 17.36560677641669 25.6413947229137 4.655510514727554 0 0 1
1333 84 1 -0.1537 17.155589256968586 26.557102303784475 5.704803433488368 0 0 1
1338 84 12 0.08459999999999999 19.94699573041981 27.457730699091343 1.5169305086908154 0 0 1
1330 84 3 -0.1442 17.394994539299013 28.409422876807895 4.133448477168898 0 0 1
1339 84 8 -0.1451 19.026158016681258 27.370587337239147 0.9401419644484207 0 0 1
1342 84 4 -0.0727 17.608273909651675 27.495120746646162 3.083111200283552 0 0 1
1331 84 17 0.147 16.994854226441234 28.641560208463037 6.246317676820885 0 0 1
1340 84 7 -0.0435 17.845574808914915 28.009845264413723 1.6791434231945028 0 0 1
1341 84 9 0.099 16.926290827399097 27.924120592577705 1.098421648821613 0 0 1
1334 84 15 0.1464 16.9833603120038 26.198815199313845 6.710025296322328 0 0 1
1332 84 2 -0.146 17.163476918512142 27.940451880542927 5.441820787137305 0 0 1
1343 84 5 -0.1534 17.58683678876785 26.109566143342953 3.345520680606102 0 0 1
1171 74 17 0.147 20.085235625284962 26.659014443414176 4.570931820262541 0 0 0
2717 170 9 0.099 24.74471756216639 21.875523019108147 4.82006665803624 0 0 0
1170 74 3 -0.1442 21.51652398629499 28.075410786384968 3.7889267633527703 0 0 0
1175 74 6 -0.1435 23.43980416197072 26.07362223367585 4.260664779214092 0 0 0
1176 74 14 0.1472 24.183962284663963 25.309487533866662 4.438823745023518 0 0 0
1182 74 4 -0.0727 22.868949742625865 28.31462973304777 3.4784697625868874 0 0 0
1183 74 5 -0.1534 23.830787674405457 27.31266813767661 3.717450356937846 0 0 0
1184 74 16 0.1448 24.8715715218755 27.48678956352815 3.4857753680800645 0 0 0
1173 74 1 -0.1537 22.086036199067124 25.834614048979624 4.567923539656006 0 0 0
1174 74 15 0.1464 21.785504436641634 24.884152520079667 4.9835730642118605 0 0 0
2706 170 3 -0.1442 26.37383307450886 23.96964853336844 2.9362847157405096 0 0 0
2711 170 6 -0.1435 27.310890497353792 25.08573475261481 5.3460855038894985 0 0 0
2712 170 14 0.1472 27.67309777526531 25.5127202992522 6.2700971276932815 0 0 0
2718 170 4 -0.0727 26.241169722010344 23.24990226096101 4.140370773732997 0 0 0
2719 170 5 -0.1534 26.709001186534472 23.811194234469852 5.34671067950078 0 0 0
2720 170 16 0.1448 26.611412482438798 23.264301911907122 6.273671420909336 0 0 0
2716 170 7 -0.0435 25.592362276392283 21.883255961402124 4.13352755839073 0 0 0
2705 170 18 0.1485 26.015810175576004 23.550662466910573 2.0066921986358905 0 0 0
358 23 15 0.1464 28.244768959130894 21.786823163220767 1.8268140326503306 0 0 1
2710 170 15 0.1464 27.920799734772736 26.772794189998535 4.135478576090015 0 0 0
2707 170 17 0.147 27.089298640328202 25.78193471412876 2.0061464961229367 0 0 0
2709 170 1 -0.1537 27.449609423572163 25.799900917281526 4.139528820194954 0 0 0
2708 170 2 -0.146 26.980447131052 25.240678918431367 2.9351112773154733 0 0 0
3105 195 18 0.1485 32.83930545845578 22.87905885268042 1.6448595832215696 0 0 0
3106 195 3 -0.1442 32.12420980889691 22.56656790079924 2.389670032506035 0 0 0
3111 195 6 -0.1435 30.284421939722606 21.747074926972925 4.354153348321919 0 0 0
3112 195 14 0.1472 29.57829055714602 21.44469569098845 5.113545798671956 0 0 0
3116 195 7 -0.0435 30.82220239671164 24.69850849750695 1.9712571356747193 0 0 0
3118 195 4 -0.0727 30.999567209362624 23.365952300573774 2.6700151775665515 0 0 0
3119 195 5 -0.1534 30.077629528220434 22.949606144991286 3.6504961220407477 0 0 0
3120 195 16 0.1448 29.21713680745583 23.563372192898143 3.872605688095264 0 0 0
3115 195 8 -0.1451 29.837443983426226 24.70719699557994 0.8012543797302293 0 0 0
195 13 17 0.147 32.86633214252779 24.503272401729394 5.150787298076404 0 0 0
199 13 6 -0.1435 30.996080564406586 27.362942657056795 5.068628543719068 0 0 0
200 13 14 0.1472 30.111614328039867 27.79883937320142 5.509591289687526 0 0 0
207 13 5 -0.1534 31.728980371869653 28.079881275233703 4.101766382327896 0 0 0
198 13 15 0.1464 30.84108783855321 25.51009898410296 6.178606109200093 0 0 0
194 13 3 -0.1442 33.295916950828165 26.220384444922978 3.9102810075422134 0 0 0
196 13 2 -0.146 32.56240399587745 25.503765269292646 4.875789940605567 0 0 0
202 13 12 0.08459999999999999 32.51759629281696 27.498758632548633 0.7739855599925125 0 0 0
203 13 8 -0.1451 32.90011180581627 28.45111131862126 1.1431956241366867 0 0 0
206 13 4 -0.0727 32.87899496811493 27.507923348727857 3.519723714237062 0 0 0
3117 195 9 0.099 30.561816171021707 25.464838070307792 2.7028336648028968 0 0 0
197 13 1 -0.1537 31.410614347266577 26.07263076767971 5.452682873485555 0 0 0
3113 195 13 0.08459999999999999 29.721836648308475 25.714851353588358 0.40393792845390925 0 0 0
193 13 18 0.1485 34.166928998542076 25.769522642279576 3.4573661868900922 0 0 0
204 13 7 -0.0435 33.65593029845526 28.25810368521427 2.460741827923381 0 0 0
1755 110 8 -0.1451 34.4303709699199 25.01899856767621 0.12260409135374697 0 0 1
1754 110 12 0.08459999999999999 33.61917738825256 24.97824727644145 0.8500009922676011 0 0 1
1560 98 14 0.1472 37.14798616659676 27.832476161215148 0.6514325939628908 0 0 0
1352 85 14 0.1472 47.56615542464481 28.896047805813108 4.596440433896997 0 0 0
1349 85 1 -0.1537 47.74269284660978 28.720192342811078 2.4470593384078754 0 0 0
1350 85 15 0.1464 47.12065791306683 27.838114184543603 2.382201013967237 0 0 0
49 4 18 0.1485 6.219884814511591 29.513841321933334 5.728772697351014 0 0 0
50 4 3 -0.1442 6.38714127901681 30.03371508970464 4.794477894202438 0 0 0
51 4 17 0.147 4.976121884810203 28.831942735179002 3.6895507218104995 0 0 0
52 4 2 -0.146 5.682147555131878 29.64750126710679 3.63796882956378 0 0 0
53 4 1 -0.1537 5.893150142660025 30.327604453538147 2.422242731776855 0 0 0
54 4 15 0.1464 5.349713977337778 30.032815211663568 1.5358199324921344 0 0 0
55 4 6 -0.1435 6.81120041348294 31.394877905912587 2.363446515913212 0 0 0
2575 161 5 -0.1534 2.84361876234088 31.547546904698365 5.5315897059418075 0 0 0
2576 161 16 0.1448 3.5906464779064717 30.84899310883313 5.182023147109516 0 0 0
56 4 14 0.1472 6.9741613452883 31.91883424912754 1.4325187084525963 0 0 0
2568 161 14 0.1472 1.5893779112556106 30.019204651998425 6.396656166085483 0 0 0
2567 161 6 -0.1435 1.7126861896247088 31.078083810537727 6.22725711092263 0 0 0
2565 161 1 -0.1537 0.7457836472003689 31.987391973132205 6.697904223381518 0 0 0
1357 85 9 0.099 1.0709385626175165 32.0633642420121 3.3512844604399086 1 0 0
2572 161 7 -0.0435 4.215526691433669 33.441747532480335 4.552903008231932 0 0 0
2573 161 9 0.099 4.564556949458541 32.7026074794528 3.830078632610156 0 0 0
2574 161 4 -0.0727 3.0052115621032014 32.92764950668094 5.2986514363578845 0 0 0
2298 144 12 0.08459999999999999 7.4816958894156045 34.96529051017362 2.6291551361525753 0 0 0
2299 144 8 -0.1451 6.989540544045684 35.57710681211707 1.8727128481153543 0 0 0
2569 161 13 0.08459999999999999 6.153139448000391 34.350440556074545 4.87353545940804 0 0 0
2570 161 12 0.08459999999999999 5.009934857469029 34.637436934638764 6.17708515719985 0 0 0
2571 161 8 -0.1451 5.357561788277172 33.89456295896246 5.461041419883386 0 0 0
2561 161 18 0.1485 2.166175725975842 34.89502505056031 5.590682648755656 0 0 0
2562 161 3 -0.1442 2.03545382471834 33.83653756080667 5.76486529642118 0 0 0
2564 161 2 -0.146 0.9063010627544107 33.367096940507714 6.463964231581531 0 0 0
1356 85 7 -0.0435 0.22520765783027027 32.26071654746943 2.692518330577566 1 0 0
60 4 7 -0.0435 8.051766169689339 31.514479657215006 5.982849607217209 0 0 0
61 4 9 0.099 7.819273336994849 32.548057651991314 6.237662773588974 0 0 0
62 4 4 -0.0727 7.305186770940226 31.100042301228626 4.735874461605758 0 0 0
63 4 5 -0.1534 7.5167694975358526 31.781157897526633 3.52000846514694 0 0 0
64 4 16 0.1448 8.221652990309513 32.59904024056065 3.4752730251038937 0 0 0
57 4 13 0.08459999999999999 10.02052480351384 31.590113455640697 6.874991130646638 0 0 0
58 4 12 0.08459999999999999 9.770229087104227 30.214929848784497 5.813102277407657 0 0 0
59 4 8 -0.1451 9.562037090814334 31.277521535784885 5.93686026738226 0 0 0
2376 149 14 0.1472 9.122126010060255 29.50174596258964 3.261766743867331 0 0 0
2384 149 16 0.1448 11.344070831290543 28.95031910402714 4.236680940341021 0 0 0
2297 144 13 0.08459999999999999 7.581724455194808 35.52004792332348 0.9593857821552815 0 0 0
802 51 3 -0.1442 19.65530648638958 32.00237155212347 7.470510297974022 0 0 0
803 51 17 0.147 18.154132520120914 30.773496971518217 6.52051862861398 0 0 0
804 51 2 -0.146 19.194022401142657 30.85208349796828 6.800914780078835 0 0 0
805 51 1 -0.1537 20.08901066574369 29.806659092262862 6.499682576323292 0 0 0
806 51 15 0.1464 19.74212525866345 28.91901717480986 5.98958346051537 0 0 0
807 51 6 -0.1435 21.446574798018737 29.915924907037684 6.85735263316472 0 0 0
1169 74 18 0.1485 20.77579847683865 28.842045220512347 3.6121547361245163 0 0 0
2438 153 15 0.1464 20.5291391824675 31.29858244020146 1.9024290689997707 0 0 0
2435 153 17 0.147 20.73291501648257 31.518344664028714 4.377266321647746 0 0 0
2436 153 2 -0.146 20.997751448237874 32.34558670970581 3.7342130691895097 0 0 0
2437 153 1 -0.1537 20.88375114367706 32.223058623428706 2.3359253862768403 0 0 0
1329 84 18 0.1485 17.404071487446462 29.47186679049101 3.934916918609203 0 0 1
2326 146 15 0.1464 18.99759360087815 34.80766930579796 3.1029347678318255 0 0 0
2323 146 17 0.147 18.88557759150952 35.250058179753 0.6598252733706642 0 0 0
808 51 14 0.1472 22.131391704440833 29.113768308617445 6.615153088374133 0 0 0
1178 74 12 0.08459999999999999 23.41503407659743 30.7323311352604 4.759593438728309 0 0 0
2440 153 14 0.1472 21.142505985390294 33.2192140473313 0.4332372121460647 0 0 0
1179 74 8 -0.1451 24.00946238268758 30.5758694126423 3.8590562480300017 0 0 0
1180 74 7 -0.0435 23.278160117616995 29.64473874613719 2.888111956393272 0 0 0
1177 74 13 0.08459999999999999 24.16327361596163 31.552856635404563 3.4024584241303844 0 0 0
1181 74 9 0.099 23.854629958682924 29.4910704016842 1.9760689748333382 0 0 0
2433 153 18 0.1485 21.54787012521899 33.627254427965255 5.377553103312683 0 0 0
2434 153 3 -0.1442 21.466853343762764 33.544636828870885 4.302929764493475 0 0 0
2439 153 6 -0.1435 21.23749196286592 33.30468589391806 1.5056344367667467 0 0 0
2446 153 4 -0.0727 21.82261987083492 34.627287316781384 3.4748910387154375 0 0 0
2447 153 5 -0.1534 21.708446695507888 34.5045626593362 2.0744519570682654 0 0 0
2448 153 16 0.1448 21.968377539783493 35.33569929013812 1.4351964433611761 0 0 0
208 13 16 0.1448 31.403208791659658 29.065020276197814 3.8002891602366438 0 0 0
205 13 9 0.099 34.002863963151746 29.21234058539079 2.8589175569738567 0 0 0
201 13 13 0.08459999999999999 33.55479224964968 28.867649571143154 0.3772247117411113 0 0 0
1565 98 9 0.099 36.203428535751215 32.65626619969035 0.2084635451748993 0 0 0
1567 98 5 -0.1534 36.41729502199155 29.806559982374065 0.1602705275876725 0 0 0
1568 98 16 0.1448 36.010893113184224 29.987274835685252 1.1449575162622072 0 0 0
2394 150 12 0.08459999999999999 40.013806188029186 31.655235589434508 1.0952628386603371 0 0 1
2395 150 8 -0.1451 40.07321289378834 31.44027713655825 0.028364075457684074 0 0 1
2398 150 4 -0.0727 42.44240029103991 30.507026438878736 0.23046415448562743 0 0 1
2385 150 18 0.1485 42.318611831677934 29.061899593247443 1.8332336775199134 0 0 1
1355 85 8 -0.1451 49.48717195851991 33.52958952719858 3.1254125978367324 0 0 0
1358 85 4 -0.0727 49.35411579886207 31.0277854921392 2.6084352848998043 0 0 0
2387 150 17 0.147 44.64801995735503 29.45873034964504 2.625928512355797 0 0 1
2389 150 1 -0.1537 45.076402173037415 30.95667045179969 1.1319483285874508 0 0 1
2390 150 15 0.1464 46.08575434865106 31.128201056665393 1.4823355385973749 0 0 1