LAMMPS data file via write_data, version 2 Aug 2023, timestep = 120, units = real

3200 atoms
20 atom types
3206 bonds
23 bond types
4836 angles
48 angle types
6490 dihedrals
73 dihedral types
1436 impropers
29 improper types

0 50 xlo xhi
0 50 ylo yhi
0 50 zlo zhi

Masses

1 12.011
2 12.011
3 12.011
4 12.011
5 12.011
6 12.011
7 12.011
8 12.011
9 1.008
10 1.008
11 1.008
12 1.008
13 1.008
14 1.008
15 1.008
16 1.008
17 1.008
18 1.008
19 12.011
20 12.011

Pair Coeffs # lj/cut/coul/long

1 0.07 3.55
2 0.07 3.55
3 0.07 3.55
4 0.07 3.55
5 0.07 3.55
6 0.07 3.55
7 0.066 3.5
8 0.066 3.5
9 0.03 2.5
10 0.03 2.5
11 0.03 2.5
12 0.03 2.5
13 0.03 2.5
14 0.03 2.42
15 0.03 2.42
16 0.03 2.42
17 0.03 2.42
18 0.03 2.42
19 0.066 3.5
20 0.066 3.5

Bond Coeffs # harmonic

1 469 1.4
2 469 1.4
3 469 1.4
4 469 1.4
5 469 1.4
6 317 1.51
7 268 1.529
8 340 1.09
9 340 1.09
10 340 1.09
11 340 1.09
12 340 1.09
13 367 1.08
14 367 1.08
15 367 1.08
16 367 1.08
17 367 1.08
18 469 1.4
19 0 0
20 0 0
21 0 0
22 0 0
23 0 0

Angle Coeffs # harmonic

1 63 120
2 63 120
3 63 120
4 63 120
5 70 120
6 63 114
7 35 109.5
8 35 109.5
9 37.5 110.7
10 37.5 110.7
11 37.5 110.7
12 35 120
13 35 120
14 35 120
15 35 120
16 35 120
17 33 107.8
18 33 107.8
19 70 120
20 35 120
21 63 120
22 37.5 110.7
23 35 120
24 37.5 110.7
25 35 120
26 35 120
27 35 120
28 33 107.8
29 63 120
30 33 107.8
31 58.35 112.7
32 0 0
33 0 0
34 0 0
35 0 0
36 0 0
37 0 0
38 0 0
39 0 0
40 0 0
41 0 0
42 0 0
43 0 0
44 0 0
45 0 0
46 0 0
47 0 0
48 0 0

Dihedral Coeffs # opls

1 0 7.25 0 0
2 0 7.25 0 0
3 0 7.25 0 0
4 0 0 0 0
5 0 0 0.462 0
6 0 0 0.3 0
7 0 7.25 0 0
8 0 0 0.3 0
9 0 7.25 0 0
10 0 7.25 0 0
11 0 7.25 0 0
12 0 7.25 0 0
13 0 0 0.3 0
14 0 7.25 0 0
15 0 7.25 0 0
16 0 7.25 0 0
17 0 0 0.3 0
18 0 0 0 0
19 0 0 0.3 0
20 0 7.25 0 0
21 0 0 0 0
22 0 0 0.3 0
23 0 7.25 0 0
24 0 7.25 0 0
25 0 7.25 0 0
26 0 0 0 0
27 0 7.25 0 0
28 0 0 0.462 0
29 0 7.25 0 0
30 0 0 0.462 0
31 0 0 0 0
32 0 7.25 0 0
33 0 7.25 0 0
34 0 7.25 0 0
35 0 7.25 0 0
36 0 7.25 0 0
37 0 0 0 0
38 0 7.25 0 0
39 0 7.25 0 0
40 1.3 -0.2 0.2 0
41 0 0 0.3 0
42 0 0 0 0
43 0 0 0 0
44 0 0 0 0
45 0 0 0 0
46 0 0 0 0
47 0 0 0 0
48 0 0 0 0
49 0 0 0 0
50 0 0 0 0
51 0 0 0 0
52 0 0 0 0
53 0 0 0 0
54 0 0 0 0
55 0 0 0 0
56 0 0 0 0
57 0 0 0 0
58 0 0 0 0
59 0 0 0 0
60 0 0 0 0
61 0 0 0 0
62 0 0 0 0
63 0 0 0 0
64 0 0 0 0
65 0 0 0 0
66 0 0 0 0
67 0 0 0 0
68 0 0 0 0
69 0 0 0 0
70 0 0 0 0
71 0 0 0 0
72 0 0 0 0
73 0 0 0 0

Improper Coeffs # cvff

1 0 0 0
2 0 0 0
3 0 0 0
4 0 0 0
5 0 0 0
6 0 0 0
7 0 0 0
8 0 0 0
9 0 0 0
10 0 0 0
11 0 0 0
12 0 0 0
13 0 0 0
14 0 0 0
15 0 0 0
16 0 0 0
17 0 0 0
18 0 0 0
19 0 0 0
20 0 0 0
21 0 0 0
22 0 0 0
23 0 0 0
24 0 0 0
25 0 0 0
26 0 0 0
27 0 0 0
28 0 0 0
29 0 0 0

Atoms # full

600 38 14 0.1472 3.4395822436204924 0.11447645617517303 10.779870727296704 0 0 0
977 62 18 0.1485 0.38456652999067265 1.0346086551873463 10.003414412858822 0 0 0
980 62 2 -0.146 0.23619245911216855 0.10226680330336113 8.062231252501542 0 0 0
755 48 17 0.147 15.857885968628196 5.985965506922962 8.818020731293812 0 0 0
758 48 15 0.1464 15.804038616632454 5.274782403387108 11.203852568507477 0 0 0
2937 184 13 0.08459999999999999 16.18718869800369 8.166952215381043 11.220855627694059 0 0 0
2938 184 12 0.08459999999999999 16.07593189932447 9.707830400768067 12.062882953790309 0 0 0
2939 184 8 -0.1451 16.269200331814524 8.643601214037359 12.197969221761483 0 0 0
753 48 18 0.1485 17.948134073663898 5.751895507499284 7.495762148303456 0 0 0
754 48 3 -0.1442 17.93035307334117 5.4415600746804085 8.5306562715441 0 0 0
756 48 2 -0.146 16.744527212446595 5.575232379686433 9.279667794306803 0 0 0
757 48 1 -0.1537 16.71396963439522 5.172788395931646 10.629335857727137 0 0 0
759 48 6 -0.1435 17.870025420018887 4.637011321407348 11.229916223724391 0 0 0
760 48 14 0.1472 17.848376877184368 4.3278762825641435 12.265224640483742 0 0 0
761 48 13 0.08459999999999999 20.259794332523622 2.6296223597205883 7.956013144942922 0 0 0
762 48 12 0.08459999999999999 19.60512805490507 3.6178597568879503 6.653629338921821 0 0 0
763 48 8 -0.1451 20.399524811545305 3.555601056256291 7.3976863603975005 0 0 0
764 48 7 -0.0435 20.36776001975914 4.764080480636545 8.336752224927713 0 0 0
765 48 9 0.099 20.58473825252211 5.689292071901244 7.801573105526237 0 0 0
766 48 4 -0.0727 19.08837808339574 4.906267047836539 9.131460024570668 0 0 0
767 48 5 -0.1534 19.056055204609088 4.503939550335491 10.481278022000552 0 0 0
768 48 16 0.1448 19.94259659571939 4.095423141637274 10.945256496778876 0 0 0
1713 108 18 0.1485 22.97567380746489 1.0776407869388112 4.793926940126952 0 0 0
1714 108 3 -0.1442 24.00845471590117 0.772033380498098 4.879536982913067 0 0 0
1716 108 2 -0.146 24.644779901745533 0.15807822770837573 3.7844040750423074 0 0 0
1721 108 13 0.08459999999999999 23.510189868948952 3.5813741017428784 8.068169959169692 0 0 0
1722 108 12 0.08459999999999999 23.4351407468851 3.491848043876238 6.309646022970333 0 0 0
1723 108 8 -0.1451 23.99238474811198 3.1602388894464397 7.185701294249345 0 0 0
1724 108 7 -0.0435 24.032514369569444 1.6320300608112577 7.263204284490458 0 0 0
1725 108 9 0.099 23.03346107408975 1.2164938203094857 7.398800883728163 0 0 0
1726 108 4 -0.0727 24.71103246280314 0.9690867278504329 6.085580710543102 0 0 0
2673 168 18 0.1485 19.72649652283983 1.1652599833376462 5.807517606844851 0 0 0
2674 168 3 -0.1442 20.246954655382666 0.2773570123280994 5.480073065860453 0 0 0
2681 168 13 0.08459999999999999 17.809888291144908 1.923246696248979 2.6151084043832746 0 0 0
2682 168 12 0.08459999999999999 17.571186799590368 0.5423314672972919 3.680025115241332 0 0 0
2683 168 8 -0.1451 18.246039535690613 1.3651682676300618 3.443324023321632 0 0 0
2684 168 7 -0.0435 19.64158537997706 0.8475376790268184 3.0777311010421644 0 0 0
2685 168 9 0.099 20.31321061217956 1.671100038452511 2.8332891882880924 0 0 0
2930 184 3 -0.1442 19.398310932176223 10.205713816644604 12.359980014088466 0 0 0
2931 184 17 0.147 20.915327033404953 11.672610156466538 11.891827364454775 0 0 0
2932 184 2 -0.146 20.450270039968135 10.744585453118978 11.59275591026253 0 0 0
2933 184 1 -0.1537 20.89586079593434 10.072896756183717 10.43693404972049 0 0 0
2934 184 15 0.1464 21.703311806269152 10.485672643698933 9.849159173487854 0 0 0
2935 184 6 -0.1435 20.288516941762705 8.862578928912699 10.048339777915448 0 0 0
2936 184 14 0.1472 20.626700572004367 8.343027070660785 9.164013362886118 0 0 0
2942 184 4 -0.0727 18.791051951710077 8.994926224594659 11.972445926372409 0 0 0
2943 184 5 -0.1534 19.236726475574127 8.32552852742292 10.815268148302296 0 0 0
2944 184 16 0.1448 18.77199415569767 7.397479359199313 10.51471599419455 0 0 0
1715 108 17 0.147 24.101154710513505 0.0006783314829945652 2.864822350437054 0 1 0
298 19 12 0.08459999999999999 2.1314100773246922 1.1076521868228302 12.462251104945134 0 0 0
49 4 18 0.1485 3.2959413004117946 1.3375789957124238 24.51524628466954 0 0 0
50 4 3 -0.1442 3.0256524536268063 2.3243185880076633 24.173032626714548 0 0 0
51 4 17 0.147 5.0107660919636885 2.757071104624718 23.4459442120747 0 0 0
52 4 2 -0.146 4.003019670891473 3.132036019018521 23.56296573634354 0 0 0
53 4 1 -0.1537 3.662051860380517 4.419428722999858 23.10793237336843 0 0 0
54 4 15 0.1464 4.408735640768532 5.045922024065979 22.639220657602802 0 0 0
55 4 6 -0.1435 2.3465602931276144 4.897332401317387 23.26913870105629 0 0 0
56 4 14 0.1472 2.089836847269434 5.887971699457468 22.920584759144436 0 0 0
60 4 7 -0.0435 0.6498637646098626 1.9248517970541308 24.97342590130538 0 0 0
61 4 9 0.099 0.43237401825655813 1.0720878873010233 24.330248712763126 0 0 0
62 4 4 -0.0727 1.707362634046678 2.7978656662519876 24.33252843556803 0 0 0
63 4 5 -0.1534 1.369511845347613 4.088525233561418 23.881440597896972 0 0 0
64 4 16 0.1448 0.3619309492942606 4.458949319475165 24.00266764436691 0 0 0
297 19 13 0.08459999999999999 1.8257790738948405 1.7283251483572362 14.08234195352523 0 0 0
2941 184 9 0.099 17.840525369499645 7.359828198551767 12.982510899570821 0 0 0
299 19 8 -0.1451 1.4855342312888633 1.7603013687260862 13.047973391617232 0 0 0
300 19 7 -0.0435 0.021530243211315418 1.3262299156901207 12.922803917988748 0 0 0
933 59 1 -0.1537 2.806975561362684 12.398165756227494 24.138061668688998 0 0 0
934 59 15 0.1464 2.4016003040591194 11.884894600897079 24.998012315325454 0 0 0
935 59 6 -0.1435 3.755036839354224 11.753875509908903 23.31951032381375 0 0 0
936 59 14 0.1472 4.08030223386485 10.750284821264707 23.55474984141569 0 0 0
943 59 5 -0.1534 4.290135486105978 12.422588032575883 22.201797723884802 0 0 0
944 59 16 0.1448 5.017367203024589 11.92856858921195 21.574099793282457 0 0 0
1255 79 6 -0.1435 7.361275791961962 9.412273433067755 24.68821668122988 0 0 0
1256 79 14 0.1472 8.300111531393213 9.392118107011859 24.153924841708314 0 0 0
1261 79 9 0.099 4.056896417030958 6.839642872580723 24.564722682785092 0 0 0
1263 79 5 -0.1534 6.577142679951568 8.245638608778389 24.780764429027233 0 0 0
1264 79 16 0.1448 6.911926909268389 7.330127788531061 24.313774434361086 0 0 0
1818 106 12 0.08459999999999999 1.639472381301048 0.04009287835096416 22.568334352393816 0 0 0
2161 136 18 0.1485 2.8314827854243796 8.20122597290029 21.5235200754096 0 0 0
2162 136 3 -0.1442 3.7045956968934757 7.653962083394488 21.196896369339683 0 0 0
2163 136 17 0.147 5.0773066611312245 8.827526979797216 22.385877002080072 0 0 0
2164 136 2 -0.146 4.976535059882363 8.00935178627779 21.685761625731235 0 0 0
2165 136 1 -0.1537 6.117766638804535 7.298897518399679 21.26484706457707 0 0 0
2166 136 15 0.1464 7.093607526389507 7.576385337313305 21.63800591522183 0 0 0
2167 136 6 -0.1435 5.987154192953429 6.231438460703327 20.35526352023704 0 0 0
2168 136 14 0.1472 6.864054587362805 5.689155054175422 20.02946843519145 0 0 0
2169 136 13 0.08459999999999999 2.179523685546719 7.200034675454816 17.891059578782595 0 0 0
2170 136 12 0.08459999999999999 1.0105825908748676 5.89045023458875 18.014272487099543 0 0 0
2171 136 8 -0.1451 2.019040457582847 6.197869112304971 18.287627088469463 0 0 0
2172 136 7 -0.0435 2.1972322836332796 6.174832358602466 19.80671764702059 0 0 0
2173 136 9 0.099 1.9466860911282338 5.19321540314673 20.21034633244626 0 0 0
2174 136 4 -0.0727 3.570935237811899 6.58162769213891 20.292615098701795 0 0 0
2175 136 5 -0.1534 4.7138531055546835 5.871255957532077 19.871640508871554 0 0 0
2176 136 16 0.1448 4.611339944137891 5.052319253637048 19.17384281475512 0 0 0
2241 141 18 0.1485 6.985506837896648 4.282928676061571 22.54987505953587 0 0 0
2242 141 3 -0.1442 7.664506337270103 3.499798065500055 22.241909929393177 0 0 0
2243 141 17 0.147 6.422416606906125 2.863681634993573 20.593229776026817 0 0 0
2244 141 2 -0.146 7.3436465225435805 2.6950406106623164 21.131557999824164 0 0 0
2245 141 1 -0.1537 8.221663195586853 1.6706826231438545 20.727359603254843 0 0 0
2246 141 15 0.1464 7.97604884990237 1.0516333859009106 19.876271960051785 0 0 0
2249 141 13 0.08459999999999999 7.193073968719733 3.828218504403768 24.959574789302554 0 0 0
2482 139 3 -0.1442 0.8355102055853455 1.6666474722436777 19.788896953334152 0 0 0
2483 139 17 0.147 1.7964982355815788 2.663027686372102 21.451016343718862 0 0 0
2484 139 2 -0.146 1.9153825887559022 2.286733520991623 20.444741021482876 0 0 0
2485 139 1 -0.1537 3.157376714835588 2.4111441196374517 19.79497634586881 0 0 0
2486 139 15 0.1464 3.979371277617012 2.8864650828364127 20.311073839107664 0 0 0
2487 139 6 -0.1435 3.319082888752478 1.9184723240089623 18.484747712830394 0 0 0
2488 139 14 0.1472 4.272052061127696 2.0148491794970274 17.98496877150411 0 0 0
2494 139 4 -0.0727 0.9976733927997048 1.1629998547472933 18.483303591543173 0 0 0
2495 139 5 -0.1534 2.2396590727702805 1.2928202988764437 17.8287663180432 0 0 0
2496 139 16 0.1448 2.369007067212705 0.9090829529453476 16.827329489478835 0 0 0
2793 175 13 0.08459999999999999 2.245571927484788 4.989176715488238 13.752570037327752 0 0 0
2794 175 12 0.08459999999999999 2.356359530592612 6.1606961072627495 15.063146952461576 0 0 0
2795 175 8 -0.1451 2.113166855732824 5.124316983570749 14.826224766633668 0 0 0
2796 175 7 -0.0435 0.680357200417395 4.792675315339192 15.250256081886766 0 0 0
2797 175 9 0.099 0.4518524108611811 3.7396517737472257 15.087900803162382 0 0 0
3121 185 18 0.1485 5.892577454872195 9.896650272142267 19.848195207779916 0 0 0
3122 185 3 -0.1442 5.9945828157497525 10.698338006272088 19.131122045553912 0 0 0
3123 185 17 0.147 7.537093194563557 11.721522097299227 20.246682141651142 0 0 0
3124 185 2 -0.146 6.927872191595582 11.72978446186491 19.354684670708906 0 0 0
3129 185 13 0.08459999999999999 5.505530574293995 7.875569593687274 17.86548808285158 0 0 0
3130 185 12 0.08459999999999999 5.3691240550727874 8.533347347623735 16.23828395955756 0 0 0
3131 185 8 -0.1451 4.812970263129727 8.320859892750578 17.151080370686767 0 0 0
3132 185 7 -0.0435 4.197148331062055 9.599510867493677 17.723352116519894 0 0 0
3133 185 9 0.099 3.6365508615780606 9.387951752637674 18.63532132573676 0 0 0
3134 185 4 -0.0727 5.194913129993024 10.708528412897188 17.970623291964863 0 0 0
3135 185 5 -0.1534 5.336594239740876 11.74750032919314 17.029732033379137 0 0 0
3136 185 16 0.1448 4.728106975940131 11.75239112826952 16.136821866350157 0 0 0
1132 71 7 -0.0435 14.584837142318769 0.13685771504287178 22.989157380529992 0 0 0
1133 71 9 0.099 14.560226911142562 1.0327307451125025 22.367421913040555 0 0 0
2247 141 6 -0.1435 9.423230033168236 1.4561672927425813 21.430622322997994 0 0 0
2248 141 14 0.1472 10.099636039476412 0.6724636388486608 21.120369814793516 0 0 0
2252 141 7 -0.0435 9.179015448829913 4.129762710582499 24.173128415482932 0 0 0
2253 141 9 0.099 10.222808490876892 4.058811486431366 24.48123637136436 0 0 0
2254 141 4 -0.0727 8.859711838050004 3.278327463555085 22.95768726470123 0 0 0
2255 141 5 -0.1534 9.743588457706283 2.2611968626121746 22.541274231510258 0 0 0
2256 141 16 0.1448 10.665472127889466 2.087079851155332 23.07661696122645 0 0 0
2929 184 18 0.1485 19.05755664436433 10.721282504659635 13.246252806471423 0 0 0
2940 184 7 -0.0435 17.66064561304737 8.419279186912135 12.795807379660147 0 0 0
57 4 13 0.08459999999999999 1.1424143735682886 2.3292337248926125 27.0493325077647 0 0 0
58 4 12 0.08459999999999999 0.1400899449523329 0.8981704545331797 26.816861976522027 0 0 0
59 4 8 -0.1451 0.9685278169896214 1.4711012972946527 26.400130749690174 0 0 0
1078 68 15 0.1464 7.138507105403411 0.37203314086298 28.828051536322814 0 0 0
1249 79 18 0.1485 3.9747878848703007 9.487929203294419 26.617025614585145 0 0 0
1250 79 3 -0.1442 4.914746813100792 9.465393044583669 26.084501153946352 0 0 0
1251 79 17 0.147 5.361436555840786 11.548251758340193 26.45596364791202 0 0 0
1252 79 2 -0.146 5.700616394644159 10.630991485861205 25.99568559888778 0 0 0
1253 79 1 -0.1537 6.921444504841479 10.605812423383584 25.29369208510219 0 0 0
1254 79 15 0.1464 7.519054766518562 11.503555794650751 25.22162032372267 0 0 0
1257 79 13 0.08459999999999999 4.4945223248343495 4.942615476513312 26.125404631191707 0 0 0
1258 79 12 0.08459999999999999 5.539660154089585 5.956522008729258 27.11699719028279 0 0 0
1259 79 8 -0.1451 5.1796597389872545 5.790551960854644 26.101252594950854 0 0 0
1260 79 7 -0.0435 4.483628960118595 7.036227851512648 25.547894288750758 0 0 0
1262 79 4 -0.0727 5.35015682824172 8.273017218640993 25.47456656641038 0 0 0
1501 94 9 0.099 7.484466614269729 3.7225943418525396 33.32701856143163 0 0 0
1504 94 16 0.1448 8.035395036265882 1.4411655354668316 32.098481204647335 0 0 0
2250 141 12 0.08459999999999999 8.129894125424984 4.993240949622756 25.828889544494125 0 0 0
2251 141 19 -0.1451 8.193143580019456 4.015127873143403 25.349524689201097 0 0 0
2817 177 18 0.1485 3.096512473120447 1.4188217624266377 31.664694512700077 0 0 0
2818 177 3 -0.1442 3.78815874033678 1.425350358963279 32.494486379606116 0 0 0
2820 177 2 -0.146 4.536038715403757 0.2687571757799632 32.789165214161805 0 0 0
2821 177 1 -0.1537 5.432946944604837 0.2695708723373427 33.874496396942526 0 0 0
2823 177 6 -0.1435 5.586130886752478 1.4272711954102872 34.661149382413285 0 0 0
2824 177 14 0.1472 6.291425062258095 1.4279884954049458 35.480709184726464 0 0 0
2825 177 13 0.08459999999999999 1.2965487722401323 3.24592163544885 33.922850394289156 0 0 0
2826 177 12 0.08459999999999999 1.1244773677780528 4.599938722767692 32.809463387980344 0 0 0
2827 177 8 -0.1451 1.6331356527761445 3.6491203041599802 32.96722629791291 0 0 0
2828 177 7 -0.0435 3.1524484817157603 3.837360383720421 32.96426039437385 0 0 0
2829 177 9 0.099 3.4967755406784895 4.26935433966742 32.024079366635235 0 0 0
2830 177 4 -0.0727 3.943397519700288 2.5870210044445203 33.27921610761164 0 0 0
2831 177 5 -0.1534 4.842957414302484 2.585893301524116 34.36329441583736 0 0 0
2832 177 16 0.1448 4.968204940911159 3.473046414789172 34.967211532383374 0 0 0
2946 141 3 -0.1442 7.829270365358711 3.2641480236081324 28.870403360323525 0 0 0
2947 141 17 0.147 7.090117238847429 3.47919053007152 30.894763251777718 0 0 0
2948 141 2 -0.146 6.837548058180479 3.2422483957860906 29.87162974787109 0 0 0
2949 141 1 -0.1537 5.508107085094718 2.9154896905706718 29.54354426481134 0 0 0
2950 141 15 0.1464 4.751513072468704 2.9033041357077183 30.313837819618197 0 0 0
2951 141 6 -0.1435 5.167072745034003 2.6069265872732195 28.21371725837886 0 0 0
2952 141 14 0.1472 4.1477931426233825 2.3602144150318565 27.952061353560882 0 0 0
2958 141 4 -0.0727 7.492425372890255 2.957643068090159 27.534359573820847 0 0 0
2959 141 5 -0.1534 6.157707470207329 2.62566472833276 27.215177201774104 0 0 0
2960 141 16 0.1448 5.8845588569290035 2.388030148991817 26.196302237399905 0 0 0
1080 68 14 0.1472 9.275698820571247 0.6590405348694884 30.06744381109917 0 0 0
1489 94 18 0.1485 9.89036414090432 2.728741892943222 35.77695359607301 0 0 0
1490 94 3 -0.1442 9.626002434373602 1.940578053029832 35.08657757746528 0 0 0
1491 94 17 0.147 10.481142372577903 0.36280281819085874 36.29702382544627 0 0 0
1492 94 2 -0.146 9.958665038121874 0.6038339003010219 35.38251919653363 0 0 0
1497 94 13 0.08459999999999999 10.446402112186089 4.48309721195809 32.9576309018039 0 0 0
1498 94 12 0.08459999999999999 9.460319383466416 3.8421864303119295 31.649812341044193 0 0 0
1499 94 8 -0.1451 9.424021596551672 4.3945545639958 32.587549395889816 0 0 0
1500 94 7 -0.0435 8.53714627327622 3.6790117188217057 33.60978631697199 0 0 0
1502 94 4 -0.0727 8.934296417642505 2.2487072487607183 33.89873257968382 0 0 0
1503 94 5 -0.1534 8.588304163121826 1.21883414191075 33.000130655036656 0 0 0
1976 124 14 0.1472 16.521971901354814 1.0060763531346524 27.399019370544064 0 0 0
2054 129 15 0.1464 12.30624487741254 0.15197919879395055 26.639392512742106 0 0 0
2056 129 14 0.1472 12.125585940307575 0.13931101834988788 29.123763019111184 0 0 0
2945 141 18 0.1485 8.845072981611288 3.517453252012915 29.13580477358646 0 0 0
2953 141 13 0.08459999999999999 9.64066856596342 1.5265486362212233 25.218686777431014 0 0 0
2954 141 12 0.08459999999999999 8.970949722182219 0.8518608364593764 26.686102530469885 0 0 0
2955 141 8 -0.1451 8.778356421727047 1.564065157719852 25.88202761176494 0 0 0
2956 141 20 -0.0435 8.547554109004084 2.9771490698340783 26.439249424767418 0 0 0
2957 141 9 0.099 9.486161329010717 3.2943448636358177 26.894971255993735 0 0 0
3025 190 18 0.1485 11.3514212989911 2.007725686155378 32.256546315770386 0 0 0
3026 190 3 -0.1442 12.36038259278162 2.3932652826630583 32.31014393276347 0 0 0
3027 190 17 0.147 12.577732256194405 1.9125785421978856 34.40262810627807 0 0 0
3028 190 2 -0.146 13.05646085605985 2.3413297918676195 33.533440762215676 0 0 0
3029 190 1 -0.1537 14.375581779246048 2.8277318044567767 33.61669701575954 0 0 0
3030 190 15 0.1464 14.917573895244523 2.7686184354799765 34.55010922665647 0 0 0
3031 190 6 -0.1435 14.992156462745179 3.382361952955247 32.478412298857656 0 0 0
3032 190 14 0.1472 16.00379886758119 3.756518169566262 32.541585174673095 0 0 0
3033 190 13 0.08459999999999999 11.241240432163474 4.92604861070961 30.20819062257508 0 0 0
3034 190 12 0.08459999999999999 11.238194777483304 4.416514703789317 28.519902864054547 0 0 0
3035 190 8 -0.1451 11.82934628180295 4.4315364766685335 29.43498660845254 0 0 0
3036 190 7 -0.0435 12.22154882912555 3.0144554114508826 29.861474935383583 0 0 0
3037 190 9 0.099 12.804932021879655 2.5249238192311823 29.080641265382706 0 0 0
3038 190 4 -0.0727 12.976755040943996 2.946153204629459 31.170215982257044 0 0 0
3039 190 5 -0.1534 14.294766457948288 3.439843308746398 31.256016883054713 0 0 0
3040 190 16 0.1448 14.77272390477054 3.864905405983473 30.38495478836466 0 0 0
458 29 12 0.08459999999999999 20.877240876621762 0.7625951779319909 32.658683106848954 0 0 0
460 29 7 -0.0435 21.75473225422154 0.08137997843285716 34.51701604806834 0 0 0
461 29 9 0.099 22.376602122191844 0.9603510664199612 34.687215542382035 0 0 0
705 45 18 0.1485 23.959421706554547 2.6447324458107166 36.55299946130639 0 0 0
706 45 3 -0.1442 24.586125304983774 3.042724053833187 35.768073037559226 0 0 0
707 45 17 0.147 24.867190666411794 1.1363118141349127 34.79835644648433 0 0 0
714 45 12 0.08459999999999999 22.342936356965403 5.5619804376784385 36.06617887402429 0 0 0
715 45 8 -0.1451 22.844145021160923 5.317232548059363 37.00204619479473 0 0 0
716 45 7 -0.0435 24.366872172360477 5.325734197537832 36.841662190854436 0 0 0
718 45 4 -0.0727 24.897746622629843 4.41591562370329 35.75598811279115 0 0 0
817 52 18 0.1485 18.868396427335327 12.121350205519724 35.50095500306462 0 0 0
818 52 3 -0.1442 18.796465331260194 11.576302048285863 34.57116485221243 0 0 0
819 52 17 0.147 17.287712792361656 10.208396847252633 35.29938223856866 0 0 0
820 52 2 -0.146 17.900484928188792 10.494944576512449 34.45687249476492 0 0 0
821 52 1 -0.1537 17.80445231771664 9.783986522183266 33.24459445504739 0 0 0
822 52 15 0.1464 17.12015875525257 8.951684674849247 33.156774392493716 0 0 0
823 52 6 -0.1435 18.604063912601067 10.15606352654898 32.14688098081703 0 0 0
824 52 14 0.1472 18.535489851168315 9.612350503518657 31.215687702852353 0 0 0
825 52 13 0.08459999999999999 21.643516119306657 12.275503834706882 35.258421037546114 0 0 0
826 52 12 0.08459999999999999 22.439360225629024 12.031141771456113 33.72832304720319 0 0 0
830 52 4 -0.0727 19.602993060471103 11.945278938243023 33.476125305645475 0 0 0
831 52 5 -0.1534 19.505245996726035 11.231650242018333 32.2643805840066 0 0 0
832 52 16 0.1448 20.12171697359099 11.502318172061406 31.419880783494445 0 0 0
1539 97 17 0.147 18.421722433396795 1.678969431880498 34.02654361386468 0 0 0
1540 97 2 -0.146 17.990123507873427 0.7046442322262332 33.850674399449986 0 0 0
1541 97 1 -0.1537 17.09717175970476 0.5116278842100491 32.78202311908008 0 0 0
1542 97 15 0.1464 16.836510533884784 1.3387657695241657 32.137743222133395 0 0 0
1633 103 18 0.1485 23.302577063135892 5.387386152621123 33.67280613217724 0 0 0
1634 103 3 -0.1442 22.765103554707125 6.048425567777161 33.009359497819226 0 0 0
1635 103 17 0.147 22.367522526270218 7.518479477635343 34.544652085637736 0 0 0
1636 103 2 -0.146 22.233283327236556 7.254115553545386 33.50587024854505 0 0 0
1637 103 1 -0.1537 21.52198624274755 8.114277549110767 32.648340250506486 0 0 0
1638 103 15 0.1464 21.109707904970904 9.038860418747024 33.0296291955046 0 0 0
1639 103 6 -0.1435 21.3390103652205 7.764803107506823 31.296300806004055 0 0 0
1640 103 14 0.1472 20.788557176364808 8.426771950899154 30.643417778817522 0 0 0
1641 103 13 0.08459999999999999 22.65546195267984 2.372147528932741 30.583148310961665 0 0 0
1642 103 12 0.08459999999999999 21.717253394280963 3.0175108578883556 31.925913115777554 0 0 0
1643 103 8 -0.1451 22.169885107755235 3.26865448239764 30.967118865312017 0 0 0
1644 103 7 -0.0435 23.176948763806976 4.4111561217095785 31.118124014195104 0 0 0
1645 103 9 0.099 24.031542521505653 4.102145424403624 31.722014665352074 0 0 0
1646 103 4 -0.0727 22.5917532286673 5.70031243448721 31.654770168645253 0 0 0
1647 103 5 -0.1534 21.876081553662793 6.560770370714546 30.798477382903094 0 0 0
1648 103 16 0.1448 21.736868159914597 6.295049941866127 29.76061754314326 0 0 0
1969 124 18 0.1485 21.08512259707973 0.7087525370797234 29.367823121387403 0 0 0
1970 124 3 -0.1442 20.097955869438387 0.7734240730400356 28.934614388269832 0 0 0
1971 124 17 0.147 19.085851987064288 0.28592345770427424 30.783006154781237 0 0 0
1972 124 2 -0.146 18.966392696020826 0.5360575416572796 29.73845290936285 0 0 0
1973 124 1 -0.1537 17.676352632818826 0.6264735089136544 29.18086790935734 0 0 0
1974 124 15 0.1464 16.803804593134853 0.4401618450467376 29.79079140704231 0 0 0
1975 124 6 -0.1435 17.516014524776146 0.9483404197874953 27.820335910142646 0 0 0
1977 124 13 0.08459999999999999 22.014475094635863 3.00761931756452 27.872014085149793 0 0 0
1978 124 12 0.08459999999999999 20.93727253785832 3.543553942974388 26.589034355710346 0 0 0
1979 124 8 -0.1451 21.699153924294187 2.8077867368866016 26.847241706300707 0 0 0
1980 124 7 -0.0435 21.14739631553656 1.386237037013479 26.708680518176 0 0 0
1981 124 9 0.099 21.923379392470668 0.6406094596999646 26.884401241119143 0 0 0
1982 124 4 -0.0727 19.938946301200584 1.1037948118624248 27.57301608747227 0 0 0
1983 124 5 -0.1534 18.647167662720637 1.1918708709437145 27.017267112482212 0 0 0
1984 124 16 0.1448 18.52235970052209 1.448027972539822 25.974401131519766 0 0 0
2113 133 18 0.1485 21.04317777363141 4.100595568475993 33.93132982741648 0 0 0
2114 133 3 -0.1442 20.177005572596087 3.9307263097347787 34.55356393599495 0 0 0
2115 133 17 0.147 21.26864187561903 2.8053167491853253 36.04009620479463 0 0 0
2116 133 2 -0.146 20.303641424966457 3.194481572648998 35.74700141051498 0 0 0
2117 133 1 -0.1537 19.174005467060844 2.970287547167845 36.55754028123265 0 0 0
2118 133 15 0.1464 19.26566151529505 2.3933053797798403 37.467016969473484 0 0 0
2119 133 6 -0.1435 17.922304539232808 3.49624440958469 36.181859240547716 0 0 0
2120 133 14 0.1472 17.05727675432934 3.324494780611393 36.80515341242125 0 0 0
2121 133 13 0.08459999999999999 18.848447766093695 4.963492075006186 30.716190416936605 0 0 0
2122 133 12 0.08459999999999999 18.255387787182027 3.5416760043969324 31.578383267264932 0 0 0
2123 133 8 -0.1451 18.969997779887034 4.363442963126471 31.617711289074553 0 0 0
2124 133 7 -0.0435 18.780816506100177 5.215903915140312 32.875869162109765 0 0 0
2125 133 9 0.099 19.467556635356054 6.063554128044058 32.87706893825491 0 0 0
2126 133 4 -0.0727 18.923016860130524 4.447621547560423 34.17027928783087 0 0 0
2127 133 5 -0.1534 17.797030572583054 4.237463339031999 34.99034115100337 0 0 0
2128 133 16 0.1448 16.835745340761232 4.638560234686327 34.703225975422356 0 0 0
2529 159 18 0.1485 19.777690122914404 12.049772122131555 27.806942518045446 0 0 0
2530 159 3 -0.1442 20.61592210003008 11.912658239442756 28.475134473044783 0 0 0
2531 159 17 0.147 20.941530316192416 9.849180552175776 27.919729440324137 0 0 0
2532 159 2 -0.146 21.27473153310212 10.668766515419765 28.539351290347632 0 0 0
2533 159 1 -0.1537 22.371532941928283 10.496134107235436 29.407519295911616 0 0 0
2534 159 15 0.1464 22.878335367891406 9.542026214712767 29.461266177418594 0 0 0
2535 159 6 -0.1435 22.807917509858758 11.566346450517589 30.212252161051772 0 0 0
2536 159 14 0.1472 23.64484604169514 11.436975380363679 30.88263571456356 0 0 0
2758 173 15 0.1464 16.38295309770121 1.742814660449792 38.71186013798015 0 0 0
713 45 13 0.08459999999999999 22.52513842234624 6.038055663808561 37.753901852951124 0 0 0
717 45 9 0.099 24.86023330973183 5.085392556456501 37.785427760151805 0 0 0
1266 80 3 -0.1442 24.33014718874603 2.361508750930804 39.6020718194137 0 0 0
1267 80 17 0.147 22.959860821634134 3.907200477768367 40.235737827314125 0 0 0
1268 80 2 -0.146 23.069826217114652 2.984327529205015 39.685021399188585 0 0 0
1269 80 1 -0.1537 21.957403557316898 2.4107191375761956 39.04016944989837 0 0 0
1270 80 15 0.1464 20.990316751852394 2.8895097469871924 39.09986135700415 0 0 0
1271 80 6 -0.1435 22.106555113124166 1.2146595978815595 38.312413523528804 0 0 0
1272 80 14 0.1472 21.253083820623726 0.7737953388882338 37.816427569199234 0 0 0
1278 80 4 -0.0727 24.480293940358827 1.162663733053058 38.87774522327619 0 0 0
1279 80 5 -0.1534 23.365524154139074 0.5889728321412315 38.23453771447575 0 0 0
2067 130 17 0.147 21.501317938106094 0.13498717488418677 48.44316938916187 0 0 0
2757 173 1 -0.1537 17.20740785313322 1.0812421710060887 38.93595939505602 0 0 0
2759 173 6 -0.1435 18.07705509880822 1.3737715905232097 40.005095456510524 0 0 0
2760 173 14 0.1472 17.92055303379409 2.2599270845178556 40.603433037979016 0 0 0
2767 173 5 -0.1534 19.149755737999833 0.5086254509710412 40.297520372805344 0 0 0
2768 173 16 0.1448 19.81709628169766 0.7339916181518867 41.11753057207395 0 0 0
1201 76 18 0.1485 13.339922531719443 23.7904914780168 2.7136205052214346 0 0 0
1202 76 3 -0.1442 14.216589844750603 23.18096540918108 2.880541100862734 0 0 0
1203 76 17 0.147 14.553047142699407 23.926192213640846 4.878235508875938 0 0 0
1204 76 2 -0.146 14.903946554788952 23.256410763710868 4.106683246005333 0 0 0
1205 76 1 -0.1537 16.0498208925439 22.46827384682738 4.323950072152153 0 0 0
1206 76 15 0.1464 16.580872214510865 22.535248963755706 5.261373746157629 0 0 0
1207 76 6 -0.1435 16.50370853785334 21.59461700933699 3.3172876132391678 0 0 0
1212 76 7 -0.0435 13.93036662415921 22.22928856607138 0.5599630184550176 0 0 0
1213 76 9 0.099 13.678118721294542 21.18854080200425 0.35621644402773656 0 0 0
1214 76 4 -0.0727 14.675089980647316 22.314247896012606 1.8709130562495793 0 0 0
1215 76 5 -0.1534 15.817012692119869 21.518250577434106 2.0907142133889964 0 0 0
1216 76 16 0.1448 16.164254763856977 20.847174204158865 1.3182299467723781 0 0 0
2199 138 6 -0.1435 13.813769835443003 18.08490799498466 0.1645482237769249 0 0 0
2200 138 14 0.1472 13.45395580846739 17.480540528276475 0.9848339152195981 0 0 0
2207 138 5 -0.1534 15.191114023320537 18.35401723413287 0.041735914797010484 0 0 0
2208 138 16 0.1448 15.885589045312358 17.953695898170782 0.7664259803694925 0 0 0
2705 170 18 0.1485 11.760788648838032 24.819721565628207 9.34837131659711 0 0 0